<?xml version="1.0"?>
<VTKFile type="UnstructuredGrid"  version="0.1"  >
<UnstructuredGrid>
<Piece  NumberOfPoints="22590" NumberOfCells="40863">
<Points>
<DataArray  type="Float64"  NumberOfComponents="3"  format="ascii">-2 -0.2720465129696908 0  -2 -0.301376292336869 0  -2 -0.3307060717040473 0  -2 -0.3600358510712256 0  -2 -0.3893656304384039 0  -2 -0.4186954098055824 0  -2 -0.4480251891727607 0  -2 -0.477354968539939 0  -2 -0.5066847479071173 0  -2 -0.5360145272742955 0  -2 -0.5653443066414738 0  -2 -0.5946740860086521 0  -2 -0.6240038653758304 0  -2 -0.6533336447430088 0  -2 -0.6826634241101871 0  -2 -0.7119932034773654 0  -2 -0.7413229828445437 0  -2 -0.770652762211722 0  -2 -0.7999825415789004 0  -2 -0.8293123209460787 0  -2 -0.8586421003132569 0  -2 -0.8879718796804352 0  -2 -0.9173016590476135 0  -2 -0.9466314384147918 0  -2 -0.9759612177819702 0  -2 -1.005290997149149 0  -2 -1.034620776516327 0  -2 -1.063950555883505 0  -2 -1.093280335250683 0  -2 -1.122610114617862 0  -2 -1.15193989398504 0  -2 -1.181269673352218 0  -2 -1.210599452719397 0  -2 -1.239929232086575 0  -2 -1.269259011453753 0  -2 -1.298588790820931 0  -2 -1.32791857018811 0  -2 -1.357248349555288 0  -2 -1.386578128922467 0  -2 -1.415907908289645 0  -2 -1.445237687656823 0  -2 -1.474567467024001 0  -2 -1.50389724639118 0  -1.97950209327043 -1.50389724639118 0  -1.961266506958218 -1.50389724639118 0  -1.944678317201442 -1.50389724639118 0  -1.929280296278128 -1.50389724639118 0  -1.914716282361279 -1.50389724639118 0  -1.900694534632301 -1.50389724639118 0  -1.886962377767959 -1.50389724639118 0  -1.873287090306119 -1.50389724639118 0  -1.85943979505925 -1.50389724639118 0  -1.845179912806207 -1.50389724639118 0  -1.830237886074712 -1.50389724639118 0  -1.814293427501838 -1.50389724639118 0  -1.796945309197993 -1.50389724639118 0  -1.777666134444843 -1.50389724639118 0  -1.755730335480988 -1.50389724639118 0  -1.733553745309129 -1.507280124541479 0  -1.733553745309129 -1.531867987171631 0  -1.733553745309129 -1.553055483649982 0  -1.733553745309129 -1.571792187293186 0  -1.733553745309129 -1.588745108628983 0  -1.733553745309129 -1.604404603920363 0  -1.733553745309129 -1.619148116773322 0  -1.733553745309129 -1.63328080858113 0  -1.733553745309129 -1.64706316663259 0  -1.733553745309129 -1.660731326149769 0  -1.733553745309129 -1.674513684201229 0  -1.733553745309129 -1.688646376009038 0  -1.733553745309129 -1.703389888861996 0  -1.733553745309129 -1.719049384153377 0  -1.733553745309129 -1.736002305489173 0  -1.733553745309129 -1.754739009132377 0  -1.733553745309129 -1.775926505610728 0  -1.733553745309129 -1.80051436824088 0  -1.755730335480988 -1.80389724639118 0  -1.777666134444843 -1.80389724639118 0  -1.796945309197993 -1.80389724639118 0  -1.814293427501838 -1.80389724639118 0  -1.830237886074712 -1.80389724639118 0  -1.845179912806207 -1.80389724639118 0  -1.85943979505925 -1.80389724639118 0  -1.873287090306119 -1.80389724639118 0  -1.886962377767959 -1.80389724639118 0  -1.900694534632301 -1.80389724639118 0  -1.914716282361279 -1.80389724639118 0  -1.929280296278128 -1.80389724639118 0  -1.944678317201442 -1.80389724639118 0  -1.961266506958218 -1.80389724639118 0  -1.97950209327043 -1.80389724639118 0  -2 -1.80389724639118 0  -2 -1.831911925478154 0  -2 -1.859926604565128 0  -2 -1.887941283652103 0  -2 -1.915955962739077 0  -2 -1.943970641826051 0  -2 -1.971985320913026 0  -2 -2 0  -1.971530475288607 -2 0  -1.943060950577214 -2 0  -1.914591425865822 -2 0  -1.886121901154429 -2 0  -1.857652376443036 -2 0  -1.829182851731643 -2 0  -1.80071332702025 -2 0  -1.772243802308858 -2 0  -1.743774277597465 -2 0  -1.715304752886072 -2 0  -1.686835228174679 -2 0  -1.658365703463286 -2 0  -1.629896178751894 -2 0  -1.601426654040501 -2 0  -1.572957129329108 -2 0  -1.544487604617715 -2 0  -1.516018079906322 -2 0  -1.487548555194929 -2 0  -1.481717841508776 -1.994277883728233 0  -1.470795173380059 -1.994277883728233 0  -1.460609063519321 -1.994277883728233 0  -1.451058972643916 -1.994277883728233 0  -1.442060247457321 -1.994277883728233 0  -1.433540965726115 -1.994277883728233 0  -1.425439490800642 -1.994277883728233 0  -1.417702554477562 -1.994277883728233 0  -1.410283737833398 -1.994277883728233 0  -1.403142254901873 -1.994277883728233 0  -1.396241968897594 -1.994277883728233 0  -1.389550588405918 -1.994277883728233 0  -1.38303900374738 -1.994277883728233 0  -1.376680733050594 -1.994277883728233 0  -1.370451454427676 -1.994277883728233 0  -1.364328605727842 -1.994277883728233 0  -1.358291037126259 -1.994277883728233 0  -1.352318704622152 -1.994277883728233 0  -1.346392394609635 -1.994277883728233 0  -1.340493471214292 -1.994277883728233 0  -1.334603639175567 -1.994277883728233 0  -1.328704715780224 -1.994277883728233 0  -1.322778405767707 -1.994277883728233 0  -1.3168060732636 -1.994277883728233 0  -1.310768504662017 -1.994277883728233 0  -1.304645655962183 -1.994277883728233 0  -1.298416377339265 -1.994277883728233 0  -1.292058106642479 -1.994277883728233 0  -1.285546521983941 -1.994277883728233 0  -1.278855141492266 -1.994277883728233 0  -1.271954855487986 -1.994277883728233 0  -1.264813372556461 -1.994277883728233 0  -1.257394555912297 -1.994277883728233 0  -1.249657619589218 -1.994277883728233 0  -1.241556144663744 -1.994277883728233 0  -1.233036862932539 -1.994277883728233 0  -1.224038137745943 -1.994277883728233 0  -1.214488046870538 -1.994277883728233 0  -1.2043019370098 -1.994277883728233 0  -1.193379268881083 -1.994277883728233 0  -1.18754855519493 -2 0  -1.159210777015508 -2 0  -1.130872998836087 -2 0  -1.102535220656665 -2 0  -1.074197442477244 -2 0  -1.045859664297822 -2 0  -1.017521886118401 -2 0  -0.9891841079389789 -2 0  -0.9608463297595574 -2 0  -0.9325085515801359 -2 0  -0.9041707734007144 -2 0  -0.8758329952212929 -2 0  -0.8474952170418713 -2 0  -0.8191574388624498 -2 0  -0.7908196606830282 -2 0  -0.7624818825036067 -2 0  -0.7341441043241852 -2 0  -0.7058063261447637 -2 0  -0.7058063261447637 -1.975580608798497 0  -0.7058063261447637 -1.954494822766768 0  -0.7058063261447637 -1.935800775624548 0  -0.7058063261447637 -1.918835519994281 0  -0.7058063261447637 -1.903109712408369 0  -0.7058063261447637 -1.888244108850713 0  -0.7058063261447637 -1.873928858471738 0  -0.7058063261447637 -1.859895501221582 0  -0.7058063261447637 -1.845895870928784 0  -0.7058063261447637 -1.831684188378722 0  -0.7058063261447637 -1.816999520829643 0  -0.7058063261447637 -1.801545883740063 0  -0.7058063261447637 -1.784966609969414 0  -0.7058063261447637 -1.766807925430772 0  -0.7058063261447637 -1.746463145833748 0  -0.7058063261447637 -1.723081648479534 0  -0.6942229966665725 -1.707963872958679 0  -0.6703349904034475 -1.707963872958679 0  -0.6496281280249674 -1.707963872958679 0  -0.6312077449395312 -1.707963872958679 0  -0.6144399350746682 -1.707963872958679 0  -0.5988536953340035 -1.707963872958679 0  -0.5840814308679441 -1.707963872958679 0  -0.5698204756531551 -1.707963872958679 0  -0.5558063261447637 -1.707963872958679 0  -0.5417921766363722 -1.707963872958679 0  -0.5275312214215834 -1.707963872958679 0  -0.5127589569555239 -1.707963872958679 0  -0.4971727172148592 -1.707963872958679 0  -0.4804049073499961 -1.707963872958679 0  -0.46198452426456 -1.707963872958679 0  -0.44127766188608 -1.707963872958679 0  -0.4173896556229549 -1.707963872958679 0  -0.4058063261447636 -1.723081648479534 0  -0.4058063261447636 -1.746463145833748 0  -0.4058063261447636 -1.766807925430772 0  -0.4058063261447636 -1.784966609969414 0  -0.4058063261447636 -1.801545883740063 0  -0.4058063261447636 -1.816999520829643 0  -0.4058063261447636 -1.831684188378722 0  -0.4058063261447636 -1.845895870928784 0  -0.4058063261447636 -1.859895501221582 0  -0.4058063261447636 -1.873928858471738 0  -0.4058063261447636 -1.888244108850713 0  -0.4058063261447636 -1.903109712408369 0  -0.4058063261447636 -1.918835519994281 0  -0.4058063261447636 -1.935800775624548 0  -0.4058063261447636 -1.954494822766768 0  -0.4058063261447636 -1.975580608798497 0  -0.4058063261447636 -2 0  -0.3766996464780424 -2 0  -0.3475929668113213 -2 0  -0.3184862871446003 -2 0  -0.2893796074778791 -2 0  -0.2602729278111579 -2 0  -0.2311662481444368 -2 0  -0.2020595684777157 -2 0  -0.1729528888109945 -2 0  -0.1438462091442733 -2 0  -0.1147395294775522 -2 0  -0.08563284981083102 -2 0  -0.05652617014410988 -2 0  -0.02741949047738873 -2 0  0.001687189189332416 -2 0  0.03079386885605356 -2 0  0.05990054852277471 -2 0  0.08900722818949586 -2 0  0.118113907856217 -2 0  0.1472205875229382 -2 0  0.1763272671896593 -2 0  0.2054339468563804 -2 0  0.2345406265231016 -2 0  0.2636473061898227 -2 0  0.2927539858565439 -2 0  0.321860665523265 -2 0  0.3509673451899862 -2 0  0.3800740248567073 -2 0  0.4091807045234285 -2 0  0.4091807045234285 -1.990795218905229 0  0.4091807045234285 -1.981150968918185 0  0.4091807045234285 -1.970977872958437 0  0.4091807045234285 -1.960170286112113 0  0.4091807045234285 -1.94860147454338 0  0.4091807045234285 -1.936117138332756 0  0.4091807045234285 -1.922526546129436 0  0.4091807045234285 -1.907590160492309 0  0.4240458902893496 -1.907502388783245 0  0.4376500926966163 -1.907502388783245 0  0.4501456592004868 -1.907502388783245 0  0.4617237902869998 -1.907502388783245 0  0.4725391386846569 -1.907502388783245 0  0.4827187068249057 -1.907502388783245 0  0.49236834608484 -1.907502388783245 0  0.5015775933236882 -1.907502388783245 0  0.5104233360677455 -1.907502388783245 0  0.518972641754929 -1.907502388783245 0  0.5272849848558649 -1.907502388783245 0  0.5354140384066363 -1.907502388783245 0  0.5434091513904565 -1.907502388783245 0  0.5513166030101111 -1.907502388783245 0  0.5591807045234285 -1.907502388783245 0  0.5670448060367459 -1.907502388783245 0  0.5749522576564005 -1.907502388783245 0  0.5829473706402206 -1.907502388783245 0  0.591076424190992 -1.907502388783245 0  0.5993887672919279 -1.907502388783245 0  0.6079380729791115 -1.907502388783245 0  0.6167838157231688 -1.907502388783245 0  0.
[...]
<PointData  Scalars="f_15-1"> 
<DataArray  type="Float64"  Name="f_15-1"  format="ascii">2.3925221244299066e-01  4.6685176076529261e-01  4.1992390814572100e-01  3.9391655562230143e-01  3.7609953201517005e-01  4.2030344815695320e-01  4.8680169906615561e-01  4.8359187520432989e-01  4.7125900108455410e-01  4.6493810373176930e-01  4.5929980100860385e-01  4.5263977582811449e-01  4.4444148889890106e-01  4.3329643441957949e-01  4.2279828790020768e-01  4.4619261047617359e-01  4.8684910233868101e-01  4.6610358640243732e-01  4.3386390076074011e-01  4.0524866121006359e-01  3.7674507868234436e-01  3.4906006636387288e-01  3.2182078156877358e-01  2.9446769715967680e-01  2.6662174664619043e-01  2.3769530760213153e-01  2.0638159198993597e-01  1.7034741893342673e-01  1.6861889161243809e-01  2.6578158383311901e-01  2.6649734684617427e-01  2.5281558273935983e-01  2.4027332540462201e-01  2.2496711675878139e-01  2.0644237188655823e-01  1.8392563269285644e-01  1.5603799500097937e-01  1.2068994764956870e-01  9.8683790612685840e-02  1.6840129624990485e-01  1.6074383356378566e-01  1.1650732946600575e-01  -1.4362862495450331e-02  1.0402108869767292e-01  1.8988845489217244e-02  -4.4676048726286516e-03  -1.6710335131734987e-02  -2.7729398218214494e-02  -3.6599091104459830e-02  -4.1986795078357515e-02  -4.6266369123550956e-02  -5.0772886178667598e-02  -5.2693258738980453e-02  -5.5341467661136963e-02  -5.7561381461981920e-02  -5.8973716481266730e-02  -6.6333040199450202e-02  -1.0555975244019550e-01  5.1091975248316941e-02  1.4797975434327720e-01  8.3578813000567631e-02  6.3576394819010965e-02  3.8685877360297286e-02  2.2048525409399347e-02  6.7672617147005367e-03  -8.2873422578198987e-03  -2.2272928042238148e-02  -3.6293356412228764e-02  -5.0091198177626181e-02  -6.4690943334962184e-02  -8.0280141737420374e-02  -9.7594675320025956e-02  -1.1585005547776238e-01  -1.3836396629291792e-01  -2.3405752243164221e-01  -6.9403812268876694e-02  8.8406775379759078e-02  5.1913771914240667e-02  4.0585972490109937e-02  3.2129479952736538e-02  3.1138921319255879e-02  3.1556388162747986e-02  3.1296968925658836e-02  3.2901190022233275e-02  3.4245178063745850e-02  3.6770711316386567e-02  3.9748749811068372e-02  4.3939450388247661e-02  4.8083006007948195e-02  6.1359370252679429e-02  7.9473218466291087e-02  2.5493780183809033e-03  2.6988965399717232e-02  2.5582207143607671e-03  -3.0123694242864669e-02  -6.1647153795785233e-02  -9.2766769532847695e-02  -1.2359527186191648e-01  -1.5433124433664072e-01  -1.6090715941987643e-01  -1.6738765925917654e-01  -1.7378276318371960e-01  -1.8012519470602689e-01  -1.8640619079976897e-01  -1.9268343867708118e-01  -1.9895922030498339e-01  -2.0527929339468123e-01  -2.1157322777898674e-01  -2.1784618155590602e-01  -2.2365391603848142e-01  -2.2924238854937323e-01  -2.3403395287162396e-01  -2.3819177137060538e-01  -2.4085851906078445e-01  -2.4056806056495655e-01  -2.4102541713186870e-01  -7.3276576466004065e-02  -3.8020101791123212e-01  -5.6683550225224244e-01  -4.4477745002101154e-01  -4.4941444236284817e-01  -4.2699829660059641e-01  -4.1413435795145609e-01  -4.1065408120608565e-01  -4.0587367215663328e-01  -4.0276510369635959e-01  -3.9952106602051218e-01  -3.9710985488812001e-01  -3.9472873482466247e-01  -3.9260738828939651e-01  -3.9060699677886035e-01  -3.8860759252930177e-01  -3.8674321707259085e-01  -3.8481239126518885e-01  -3.8294962175057029e-01  -3.8094360924829190e-01  -3.7895941055763788e-01  -3.7688944284095943e-01  -3.7465604967055216e-01  -3.7236255271037161e-01  -3.6966944430677051e-01  -3.6705677678307169e-01  -3.6398053705099037e-01  -3.6083959081267081e-01  -3.5734499026230138e-01  -3.5306653996622600e-01  -3.4904579512073519e-01  -3.4413504027761305e-01  -3.3893402628978264e-01  -3.3216839552735256e-01  -3.2572217213593851e-01  -3.1683975246647345e-01  -3.1623084889602898e-01  -3.2239040493890397e-01  -2.9356930643705054e-01  -4.2117782808975041e-01  1.4354399042769861e-01  8.4195818706778128e-02  5.9586177002924297e-02  6.6103673913590677e-02  8.0907708079029320e-02  9.2491885088417880e-02  1.0284535854046185e-01  1.1133212557866352e-01  1.1732925627724734e-01  1.2090220384208142e-01  1.2213759127083128e-01  1.2071494467042899e-01  1.1720652970803876e-01  1.1290628234662463e-01  1.0939942584482282e-01  1.0831068359521114e-01  1.1036451454705726e-01  1.2396921236075481e-01  1.3228132053186206e-02  2.3743697321583546e-01  1.3204970320535833e-01  1.3368159926693818e-01  1.3356678402407063e-01  1.2829971645605187e-01  1.2053238912796180e-01  1.1117856637723363e-01  9.8519178339925864e-02  8.5805456529337298e-02  6.9111535880233138e-02  5.4187004467641076e-02  3.6269277702209141e-02  2.1015770867089653e-02  1.3817526777010799e-03  2.3739619261410223e-02  -7.4630692233793400e-02  -3.6002595311859770e-01  -3.7116911612641712e-01  -3.3773254890790066e-01  -3.3517240514429142e-01  -3.3722003761276875e-01  -3.3778662255988745e-01  -3.3946890071156605e-01  -3.3871658193748194e-01  -3.3913435900221323e-01  -3.3594051976362238e-01  -3.3263295089330519e-01  -3.2779653534113284e-01  -3.1793475950489120e-01  -3.1572780658319616e-01  -2.8700169985799256e-01  -3.2902401108093221e-01  -1.5590429162458527e-01  1.7731005055003704e-01  1.3472436100964280e-01  8.3238497111503454e-02  5.9812625739352226e-02  3.6280242753806709e-02  2.1427525102633699e-02  5.3738568415119597e-03  -8.0305560870741685e-03  -2.1632180362227998e-02  -3.4512121409353690e-02  -4.8166947798992436e-02  -6.2506491569884928e-02  -7.8340548922945577e-02  -9.5206414127197034e-02  -1.6380346009804841e-01  -2.8162527799795532e-02  -8.2862663054851460e-02  -9.3039036881345197e-02  -9.4200721060849826e-02  -9.9095199441885107e-02  -1.0279980562297261e-01  -1.0680015610932238e-01  -1.1051405546542779e-01  -1.1503645582318094e-01  -1.2135654963216688e-01  -1.3018010393168611e-01  -1.7199684025124537e-01  -2.4495826252069777e-01  -1.9582548759661422e-01  -1.7671533767196504e-01  -1.6252008064821391e-01  -1.5217560909434438e-01  -1.4476934083036253e-01  -1.4087150946234916e-01  -1.4212943347317708e-01  -1.5502178568883307e-01  -1.9257574639932329e-01  -6.5839751072073127e-02  -3.7784934073755112e-02  -2.6654906554350058e-02  -1.9549660502200601e-02  -1.5992547411880321e-02  -1.3961076505984760e-02  -1.3733919670455516e-02  2.2214696439563685e-03  1.2865777204138995e-01  -8.1759368674930305e-02  4.8233530200705926e-03  -6.1579589690592034e-03  1.5500526995390826e-02  4.0564329537039747e-03  1.0940336802428938e-01  -1.0753892703171282e-01  -2.3666754722976646e-01  -1.7390041370057435e-01  -1.7488439195963154e-01  -1.5987022466823558e-01  -1.5953933766869935e-01  -1.5592844527957658e-01  -1.5479686213196606e-01  -1.5355785046463291e-01  -1.5299586727705294e-01  -1.5238416819122763e-01  -1.5229573179474926e-01  -1.5205876605231278e-01  -1.5213424510161394e-01  -1.5233544449161773e-01  -1.5269931718048904e-01  -1.5310617391250267e-01  -1.5378174595908969e-01  -1.5448098296556978e-01  -1.5548953900034732e-01  -1.5669179150435739e-01  -1.5802990472610670e-01  -1.6002479972924294e-01  -1.6226049555327049e-01  -1.6496114714163426e-01  -1.6925765834631787e-01  -1.7535018635652605e-01  -1.8038750048775778e-01  -1.9687939790533315e-01  -2.8769973436783319e-01  -1.8211127872877639e-01  -3.3647182945067786e-02  -8.5059285983625624e-02  -7.6159487369945447e-02  -9.0109316738083811e-02  -7.1007503760640994e-02  -1.7632067026159756e-01  6.5116714977704798e-02  3.5317650344133694e-03  -6.6892161028485067e-02  -7.7331934214525042e-02  -7.7533834503908425e-02  -7.7920364286097638e-02  -7.7505899664165101e-02  -7.6890162159911568e-02  -5.4545567126285929e-02  1.9354822092276604e-02  1.0801454135797108e-01  -1.5726925031079539e-01  -1.9200348031300020e-04  -2.0046024107624164e-01  -3.5603631861927382e-01  -2.6050369983121663e-01  -2.5621447659075786e-01  -2.3049480692119370e-01  -2.2648429877629664e-01  -2.2091663097991532e-01  -2.1611590833464181e-01  -2.1217802998992075e-01  -2.0901329417988318e-01  -2.0604361020214498e-01  -2.0341819054462562e-01  -2.0090706437169450e-01  -1.9849498452433997e-01  -1.9615800402286368e-01  -1.9390329705882975e-01  -1.9160311755688253e-01  -1.8934192128856864e-01  -1.8700995892989361e-01  -1.8466945235847271e-01  -1.8222538041929306e-01  -1.7976909331172425e-01  -1.7716403356163637e-01  -1.7448305084294699e-01  -1.7172462536330574e-01  -1.6880161992365925e-01  -1.6585185400244326e-01  -1.6267012891277796e-01  -1.5955426438892878e-01  -1.5650657568602064e-01  -1.5265825363572011e-01  -1.5099480637962057e-01  -1.4972739810922753e-01  -1.4598026128168687e-01  -1.6022206806759917e-01  -9.7236915242917679e-02  -6.5409766896755511e-02  -1.3789679743865602e-01  -1.0703609096236984e-01  -2.6588991519727743e-02  -1.0554862515216906e-01  -1.1792646802127424e-01  -1.1991907258027726e-01  -1.2249220677536482e-01  -1.2538889740771966e-01  -1.2783976677860209e-01  -1.3017115508261226e-01  -1.3203294474861821e-01  -1.3345742506834851e-01  -1.3421101837554508e-01  -1.3433274232206555e-01  -1.3340764238827477e-01  -1.3114629224579566e-01  -1.2813160683770594e-01  -1.2399895103737021e-01  -1.1995997801738603e-01  -1.1649763162453966e-01  -1.1424950021055466e-01  -1.1363552299256049e-01  -1.1476984578986719e-01  -1.1763400599042430e-01  -1.2201984848456988e-01  -1.2753229038452418e-01  -1.3398811905296285e-01  -1.4072058965203751e-01  -1.4756495713951498e-01  -1.5433124433664072e-01  -1.2359527186191648e-01  -9.2766769532847695e-02  -6.1647153795785233e-02  -3.0123694242864669e-02  2.5582207143607671e-03  2.6988965399717232e-02  2.5493780183809033e-03  3.0869005993393126e-02  1.1103869253482139e-01  1.3008293855588299e-01  1.1901704302806641e-01  1.1257473703059805e-01  1.1803033410146052e-01  1.2270410246080402e-01  1.2887167099725824e-01  1.3523748835163052e-01  1.4167846703692885e-01  1.4804911208145394e-01  1.5433679567598424e-01  1.6058559801601408e-01  1.6678963696316809e-01  1.7291825839624611e-01  1.7893056255412668e-01  1.8497551146977859e-01  1.9098708899434494e-01  1.9699726811446130e-01  2.0305435282358839e-01  2.0913198544172948e-01  2.1525417750689244e-01  2.2153407621134028e-01  2.2785877059006912e-01  2.3440838178307813e-01  2.4109201714716230e-01  2.4803726495373832e-01  2.5530662344545108e-01  2.6285885914520901e-01  2.7097314940296030e-01  2.7941585367455635e-01  2.8854288854640925e-01  2.9880418228196515e-01  3.1174599201646447e-01  3.2097084685442095e-01  3.4514344358703991e-01  3.3040233416112841e-01  4.7442673716700418e-01  3.3210512767337413e-01  1.0127204309543753e-01  -5.0365066198195196e-02  -1.4362862495450331e-02  1.1650732946600575e-01  1.6074383356378566e-01  1.6840129624990485e-01  9.8683790612685840e-02  1.2068994764956870e-01  1.5603799500097937e-01  1.8392563269285644e-01  2.0644237188655823e-01  2.2496711675878139e-01  2.4027332540462201e-01  2.5281558273935983e-01  2.6649734684617427e-01  2.6578158383311901e-01  1.6861889161243809e-01  1.7034741893342673e-01  2.0638159198993597e-01  2.3769530760213153e-01  2.6662174664619043e-01  2.9446769715967680e-01  3.2182078156877358e-01  3.4906006636387288e-01  3.7674507868234436e-01  4.0524866121006359e-01  4.3386390076074011e-01  4.6610358640243732e-01  4.8684910233868101e-01  4.4619261047617359e-01  4.2279828790020768e-01  4.3329643441957949e-01  4.4444148889890106e-01  4.5263977582811449e-01  4.5929980100860385e-01  4.6493810373176930e-01  4.7125900108455410e-01  4.8359187520432989e-01  4.8680169906615561e-01  4.2030344815695320e-01  3.7609953201517005e-01  3.9391655562230143e-01  4.1992390814572100e-01  4.6685176076529261e-01  2.3925221244299066e-01  7.6436711178694017e-01  4.8903200151606524e-01  4.9250975662986562e-01  4.4340758058353991e-01  4.1722290686130109e-01  3.9080838714988730e-01  3.6837403865889906e-01  3.4434733254379835e-01  3.2815045449621788e-01  3.0750378926641347e-01  4.8239137273823546e-01  8.1899497551659789e-02  -1.6195634033359022e-01  -5.5091472380916967e-02  -8.7670443513021626e-02  -8.0930519476349133e-02  -8.5129541030198166e-02  -9.5330666236415534e-02  -1.0390017764533221e-01  -1.1365025003931035e-01  -1.2301730799531944e-01  -1.3248349512959945e-01  -1.4157199779146026e-01  -1.5083473374512743e-01  -1.5954511436265184e-01  -1.6809229631814052e-01  -1.7622059209556437e-01  -1.8328664752919327e-01  -1.9049549680532391e-01  -1.9583127581517304e-01  -2.0086784922808676e-01  -2.0458732575504854e-01  -2.0589810312713142e-01  -2.0839309788419355e-01  -2.0353029566986544e-01  -2.0633077148271309e-01  -1.1372423858077146e-01  -3.4504781275658547e-01  -3.7903110111364297e-01  -3.0311222477904015e-01  -2.8536103910898919e-01  -2.6520250052449595e-01  -2.4870778019603096e-01  -2.3379164386002022e-01  -2.1981835998249602e-01  -2.1254976474999773e-01  -1.9768446245352098e-01  -2.2357187944219409e-01  -1.3673950723386735e-01  -6.5347421687756702e-02  -1.3240917866294616e-01  -1.0502994290662042e-01  -7.8249331548504247e-02  -4.4287021990157910e-02  9.9429215779382879e-03  5.3237629270662369e-02  -7.8900013215386353e-02  -3.1187249238652400e-02  -1.5471706058129279e-03  -1.0121880031884163e-01  -1.9991972411366973e-01  -1.5382886508496052e-01  -1.4005198587294673e-01  -1.3013074255287851e-01  -1.2202600765877247e-01  -1.1494125950629719e-01  -1.0863086024616903e-01  -1.0297662881042836e-01  -9.7657469618195450e-02  -9.2752839065278120e-02  -8.8028634590282082e-02  -8.3572866913083396e-02  -7.9206516550197115e-02  -7.5035189008529860e-02  -7.0861915901926684e-02  -6.6747598928603435e-02  -6.2686448604785297e-02  -5.8581146628620399e-02  -5.4449359308450622e-02  -5.0259382780177449e-02  -4.5918731228340573e-02  -4.1535516480481788e-02  -3.6874792030375733e-02  -3.2082478626440050e-02  -2.6999454390576320e-02  -2.1489893662744057e-02  -1.5633171068875414e-02  -9.3381874722259003e-03  -2.0337564497701355e-03  6.0120194379057494e-03  1.5642181152926701e-02  2.7057905566011568e-02  5.7362193002126929e-02  -1.1504959015640151e-02  -6.7381249145178693e-02  -4.0461569059253452e-02  -3.1771961596324533e-02  -5.6611727786145302e-02  -1.2286758302182517e-02  5.4874289217743365e-03  4.0943183942038823e-02  7.3469000548595897e-02  1.0418179275560908e-01  1.3279602931127513e-01  1.5955003049277389e-01  1.8445768310417771e-01  2.0822808815581678e-01  2.3137353717413603e-01  2.5378523181762880e-01  2.7537154430660854e-01  2.9634809750095870e-01  3.1638380490433937e-01  3.3565992359426666e-01  3.5399427187298332e-01  3.7208237721845461e-01  3.9020362015202231e-01  4.1245618675444623e-01  4.6364636107584406e-01  2.1548536955590633e-01  6.4317559081517939e-01  5.1611572458644961e-01  4.9901493742344083e-01  4.6327501569957480e-01  4.3314169073678777e-01  3.9567421640667594e-01  3.5217580314901303e-01  2.9581241826744675e-01  2.3686413926685435e-01  1.6690929625310280e-01  9.4879211643857597e-02  8.6403897839959540e-02  -1.4249705988133227e-01  -3.2446370610672326e-01  -3.3116486825446034e-01  -2.7111415046571358e-01  -2.5381841766176866e-01  -2.3637460397085505e-01  -2.2441263623524610e-01  -2.1234800256853348e-01  -2.0233281189150565e-01  -1.9244969627978356e-01  -1.8301031699763157e-01  -1.7339352904303337e-01  -1.6365225855381005e-01  -1.5292263121359873e-01  -1.4222381170083950e-01  -1.2659582948368558e-01  -1.1481802537514486e-01  -5.1495709849609064e-02  -1.6532598527275152e-01  -4.3090173302110740e-01  -4.2687288102931037e-01  -3.5561788596534383e-01  -3.2981655751517869e-01  -3.0288964859095191e-01  -2.7823968251492104e-01  -2.5775541402259916e-01  -2.3686658186224480e-01  -2.1895237324387290e-01  -2.0466232068047832e-01  -1.8564033093375198e-01  -2.2354348623066025e-01  -1.0461908348897345e-01  -6.4898181171483063e-02  -1.1135828609859988e-01  -7.9083896232024331e-02  -4.7378036456442348e-02  -1.5665390326440334e-02  1.0205311328050450e-02  9.8503169547539959e-02  -3.8878989022127608e-02  -4.7372149193285304e-04  -1.2335964980440399e-02  -1.6726034416115185e-02  -8.9840475784390937e-03  4.9994623127527116e-02  -7.6852039582599119e-02  -2.0965556273541103e-01  -1.6102360103662425e-01  -1.6343772642850374e-01  -1.5048216123533906e-01  -1.5316972989469632e-01  -1.5294941864158684e-01  -1.5365688356016410e-01  -1.5423470680972698e-01  -1.5551542071992103e-01  -1.5656017780884629e-01  -1.5788757055803654e-01  -1.5919669790340657e-01  -1.6043864793231086e-01  -1.6176113558795366e-01  -1.6288961509433286e-01  -1.6406135345663578e-01  -1.6503822675189964e-01  -1.6599178534211809e-01  -1.6674599283335839e-01  -1.6731365595373687e-01  -1.6779007264460274e-01  -1.6763592921705620e-01  -1.6718658017786281e-01  -1.6661076467838254e-01  -1.6384116198297563e-01  -1.6143951274746204e-01  -1.5392540703080232e-01  -1.4635360796305863e-01  4.4535161532007275e-02  -3.4970539303165749e-01  -5.5928422742540773e-01  -4.5276971750332212e-01  -4.2273654506363023e-01  -4.2182362397337070e-01  -4.2370912297566610e-01  -4.4757689513545379e-01  -5.3249359361861914e-01  -1.4818691688190130e-01  -3.3303580507272501e-01  -3.1253389399666004e-01  -2.8025555892040499e-01  -2.4829099010032207e-01  -2.1634898610438483e-01  -1.8517370847354023e-01  -1.5433124433664072e-01  -1.4756495713951498e-01  -1.4072058965203751e-01  -1.3398811905296285e-01  -1.2753229038452418e-01  -1.2201984848456988e-01  -1.1763400599042430e-01  -1.1476984578986719e-01  -1.1363552299256049e-01  -1.1424950021055466e-01  -1.1649763162453966e-01  -1.1995997801738603e-01  -1.2399895103737021e-01  -1.2813160683770594e-01  -1.3114629224579566e-01  -1.3340764238827477e-01  -1.3433274232206555e-01  -1.3421101837554508e-01  -1.3345742506834851e-01  -1.3203294474861821e-01  -1.3017115508261226e-01  -1.2783976677860209e-01  -1.2538889740771966e-01  -1.2249220677536482e-01  -1.1991907258027726e-01  -1.1792646802127424e-01  -1.0554862515216906e-01  -2.6588991519727743e-02  -1.3232612422466664e-01  -1.8514196097055374e-01  -1.7359158506381367e-01  -1.8171534421270980e-01  -1.8915583277369682e-01  -1.9211666786364098e-01  -1.9535773256166866e-01  -1.9111473590647290e-01  -1.8767681937935704e-01  -1.7570106574573249e-01  -1.6177509373075960e-01  -1.4764099780228046e-01  -1.1636407366751243e-01  -1.3460214333876316e-01  7.9819927678142465e-03  1.8590048600991088e-01  1.0116112672187504e-01  1.0283772033556889e-01  1.0062436117470837e-01  9.8930342272043156e-02  9.9525088882599380e-02  9.9837230625333548e-02  1.0070876808765555e-01  1.0168735873049027e-01  1.0316668637285047e-01  1.0473064110557140e-01  1.0687100243395294e-01  1.0946360278986793e-01  1.1479941574923631e-01  1.1766984966765891e-01  1.3568872064496929e-01  1.8356201681200812e-01  1.1885828572209928e-02  -1.3539609552410575e-01  -7.9741028573764403e-02  -7.4698874134453641e-02  -7.2258684279027985e-02  -7.0736986379674169e-02  -6.9720310564374208e-02  -6.9642984309607039e-02  -6.9656383823100659e-02  -6.9978558577580535e-02  -7.0790866299600810e-02  -7.2303041900649997e-02  -7.2730112251734161e-02  -7.1692366751143488e-02  -1.3382908784371556e-01  1.9354822092276604e-02  -5.4545567126285929e-02  -7.6890162159911568e-02  -7.7505899664165101e-02  -7.7920364286097638e-02  -7.7533834503908425e-02  -7.7331934214525042e-02  -6.6892161028485067e-02  3.5317650344133694e-03  -1.3829445726404629e-01  -7.9841268180591285e-02  -8.4598478122921400e-02  -7.5441845978435659e-02  -7.5974010547799189e-02  -7.3340517849209613e-02  -7.1550877877228983e-02  -6.9990448519283349e-02  -6.8219790776765654e-02  -6.6005382330958401e-02  -6.3617552327358426e-02  -9.0180098237887529e-02  1.9876941516264703e-02  1.1988103704958322e-01  3.2101365365293254e-02  2.0533997045379716e-02  1.8321983472514968e-02  1.7746112893048002e-02  2.0155257909689840e-02  2.1997895602775111e-02  2.4324983102200326e-02  2.6746271412312887e-02  2.9645945539457524e-02  3.2928740717908765e-02  3.6120523995665857e-02  4.1761265464408559e-02  4.6402156532508523e-02  5.8200172601811047e-02  6.9839129177047821e-02  9.6664124010976182e-02  1.6019630149128969e-01  6.9486220408738086e-02  -5.1032051897321240e-02  -2.7490015317154816e-02  -2.2803790986946595e-02  -2.41532762