<?xml version="1.0"?>
<VTKFile type="UnstructuredGrid"  version="0.1"  >
<UnstructuredGrid>
<Piece  NumberOfPoints="22590" NumberOfCells="40863">
<Points>
<DataArray  type="Float64"  NumberOfComponents="3"  format="ascii">-2 -0.2720465129696908 0  -2 -0.301376292336869 0  -2 -0.3307060717040473 0  -2 -0.3600358510712256 0  -2 -0.3893656304384039 0  -2 -0.4186954098055824 0  -2 -0.4480251891727607 0  -2 -0.477354968539939 0  -2 -0.5066847479071173 0  -2 -0.5360145272742955 0  -2 -0.5653443066414738 0  -2 -0.5946740860086521 0  -2 -0.6240038653758304 0  -2 -0.6533336447430088 0  -2 -0.6826634241101871 0  -2 -0.7119932034773654 0  -2 -0.7413229828445437 0  -2 -0.770652762211722 0  -2 -0.7999825415789004 0  -2 -0.8293123209460787 0  -2 -0.8586421003132569 0  -2 -0.8879718796804352 0  -2 -0.9173016590476135 0  -2 -0.9466314384147918 0  -2 -0.9759612177819702 0  -2 -1.005290997149149 0  -2 -1.034620776516327 0  -2 -1.063950555883505 0  -2 -1.093280335250683 0  -2 -1.122610114617862 0  -2 -1.15193989398504 0  -2 -1.181269673352218 0  -2 -1.210599452719397 0  -2 -1.239929232086575 0  -2 -1.269259011453753 0  -2 -1.298588790820931 0  -2 -1.32791857018811 0  -2 -1.357248349555288 0  -2 -1.386578128922467 0  -2 -1.415907908289645 0  -2 -1.445237687656823 0  -2 -1.474567467024001 0  -2 -1.50389724639118 0  -1.97950209327043 -1.50389724639118 0  -1.961266506958218 -1.50389724639118 0  -1.944678317201442 -1.50389724639118 0  -1.929280296278128 -1.50389724639118 0  -1.914716282361279 -1.50389724639118 0  -1.900694534632301 -1.50389724639118 0  -1.886962377767959 -1.50389724639118 0  -1.873287090306119 -1.50389724639118 0  -1.85943979505925 -1.50389724639118 0  -1.845179912806207 -1.50389724639118 0  -1.830237886074712 -1.50389724639118 0  -1.814293427501838 -1.50389724639118 0  -1.796945309197993 -1.50389724639118 0  -1.777666134444843 -1.50389724639118 0  -1.755730335480988 -1.50389724639118 0  -1.733553745309129 -1.507280124541479 0  -1.733553745309129 -1.531867987171631 0  -1.733553745309129 -1.553055483649982 0  -1.733553745309129 -1.571792187293186 0  -1.733553745309129 -1.588745108628983 0  -1.733553745309129 -1.604404603920363 0  -1.733553745309129 -1.619148116773322 0  -1.733553745309129 -1.63328080858113 0  -1.733553745309129 -1.64706316663259 0  -1.733553745309129 -1.660731326149769 0  -1.733553745309129 -1.674513684201229 0  -1.733553745309129 -1.688646376009038 0  -1.733553745309129 -1.703389888861996 0  -1.733553745309129 -1.719049384153377 0  -1.733553745309129 -1.736002305489173 0  -1.733553745309129 -1.754739009132377 0  -1.733553745309129 -1.775926505610728 0  -1.733553745309129 -1.80051436824088 0  -1.755730335480988 -1.80389724639118 0  -1.777666134444843 -1.80389724639118 0  -1.796945309197993 -1.80389724639118 0  -1.814293427501838 -1.80389724639118 0  -1.830237886074712 -1.80389724639118 0  -1.845179912806207 -1.80389724639118 0  -1.85943979505925 -1.80389724639118 0  -1.873287090306119 -1.80389724639118 0  -1.886962377767959 -1.80389724639118 0  -1.900694534632301 -1.80389724639118 0  -1.914716282361279 -1.80389724639118 0  -1.929280296278128 -1.80389724639118 0  -1.944678317201442 -1.80389724639118 0  -1.961266506958218 -1.80389724639118 0  -1.97950209327043 -1.80389724639118 0  -2 -1.80389724639118 0  -2 -1.831911925478154 0  -2 -1.859926604565128 0  -2 -1.887941283652103 0  -2 -1.915955962739077 0  -2 -1.943970641826051 0  -2 -1.971985320913026 0  -2 -2 0  -1.971530475288607 -2 0  -1.943060950577214 -2 0  -1.914591425865822 -2 0  -1.886121901154429 -2 0  -1.857652376443036 -2 0  -1.829182851731643 -2 0  -1.80071332702025 -2 0  -1.772243802308858 -2 0  -1.743774277597465 -2 0  -1.715304752886072 -2 0  -1.686835228174679 -2 0  -1.658365703463286 -2 0  -1.629896178751894 -2 0  -1.601426654040501 -2 0  -1.572957129329108 -2 0  -1.544487604617715 -2 0  -1.516018079906322 -2 0  -1.487548555194929 -2 0  -1.481717841508776 -1.994277883728233 0  -1.470795173380059 -1.994277883728233 0  -1.460609063519321 -1.994277883728233 0  -1.451058972643916 -1.994277883728233 0  -1.442060247457321 -1.994277883728233 0  -1.433540965726115 -1.994277883728233 0  -1.425439490800642 -1.994277883728233 0  -1.417702554477562 -1.994277883728233 0  -1.410283737833398 -1.994277883728233 0  -1.403142254901873 -1.994277883728233 0  -1.396241968897594 -1.994277883728233 0  -1.389550588405918 -1.994277883728233 0  -1.38303900374738 -1.994277883728233 0  -1.376680733050594 -1.994277883728233 0  -1.370451454427676 -1.994277883728233 0  -1.364328605727842 -1.994277883728233 0  -1.358291037126259 -1.994277883728233 0  -1.352318704622152 -1.994277883728233 0  -1.346392394609635 -1.994277883728233 0  -1.340493471214292 -1.994277883728233 0  -1.334603639175567 -1.994277883728233 0  -1.328704715780224 -1.994277883728233 0  -1.322778405767707 -1.994277883728233 0  -1.3168060732636 -1.994277883728233 0  -1.310768504662017 -1.994277883728233 0  -1.304645655962183 -1.994277883728233 0  -1.298416377339265 -1.994277883728233 0  -1.292058106642479 -1.994277883728233 0  -1.285546521983941 -1.994277883728233 0  -1.278855141492266 -1.994277883728233 0  -1.271954855487986 -1.994277883728233 0  -1.264813372556461 -1.994277883728233 0  -1.257394555912297 -1.994277883728233 0  -1.249657619589218 -1.994277883728233 0  -1.241556144663744 -1.994277883728233 0  -1.233036862932539 -1.994277883728233 0  -1.224038137745943 -1.994277883728233 0  -1.214488046870538 -1.994277883728233 0  -1.2043019370098 -1.994277883728233 0  -1.193379268881083 -1.994277883728233 0  -1.18754855519493 -2 0  -1.159210777015508 -2 0  -1.130872998836087 -2 0  -1.102535220656665 -2 0  -1.074197442477244 -2 0  -1.045859664297822 -2 0  -1.017521886118401 -2 0  -0.9891841079389789 -2 0  -0.9608463297595574 -2 0  -0.9325085515801359 -2 0  -0.9041707734007144 -2 0  -0.8758329952212929 -2 0  -0.8474952170418713 -2 0  -0.8191574388624498 -2 0  -0.7908196606830282 -2 0  -0.7624818825036067 -2 0  -0.7341441043241852 -2 0  -0.7058063261447637 -2 0  -0.7058063261447637 -1.975580608798497 0  -0.7058063261447637 -1.954494822766768 0  -0.7058063261447637 -1.935800775624548 0  -0.7058063261447637 -1.918835519994281 0  -0.7058063261447637 -1.903109712408369 0  -0.7058063261447637 -1.888244108850713 0  -0.7058063261447637 -1.873928858471738 0  -0.7058063261447637 -1.859895501221582 0  -0.7058063261447637 -1.845895870928784 0  -0.7058063261447637 -1.831684188378722 0  -0.7058063261447637 -1.816999520829643 0  -0.7058063261447637 -1.801545883740063 0  -0.7058063261447637 -1.784966609969414 0  -0.7058063261447637 -1.766807925430772 0  -0.7058063261447637 -1.746463145833748 0  -0.7058063261447637 -1.723081648479534 0  -0.6942229966665725 -1.707963872958679 0  -0.6703349904034475 -1.707963872958679 0  -0.6496281280249674 -1.707963872958679 0  -0.6312077449395312 -1.707963872958679 0  -0.6144399350746682 -1.707963872958679 0  -0.5988536953340035 -1.707963872958679 0  -0.5840814308679441 -1.707963872958679 0  -0.5698204756531551 -1.707963872958679 0  -0.5558063261447637 -1.707963872958679 0  -0.5417921766363722 -1.707963872958679 0  -0.5275312214215834 -1.707963872958679 0  -0.5127589569555239 -1.707963872958679 0  -0.4971727172148592 -1.707963872958679 0  -0.4804049073499961 -1.707963872958679 0  -0.46198452426456 -1.707963872958679 0  -0.44127766188608 -1.707963872958679 0  -0.4173896556229549 -1.707963872958679 0  -0.4058063261447636 -1.723081648479534 0  -0.4058063261447636 -1.746463145833748 0  -0.4058063261447636 -1.766807925430772 0  -0.4058063261447636 -1.784966609969414 0  -0.4058063261447636 -1.801545883740063 0  -0.4058063261447636 -1.816999520829643 0  -0.4058063261447636 -1.831684188378722 0  -0.4058063261447636 -1.845895870928784 0  -0.4058063261447636 -1.859895501221582 0  -0.4058063261447636 -1.873928858471738 0  -0.4058063261447636 -1.888244108850713 0  -0.4058063261447636 -1.903109712408369 0  -0.4058063261447636 -1.918835519994281 0  -0.4058063261447636 -1.935800775624548 0  -0.4058063261447636 -1.954494822766768 0  -0.4058063261447636 -1.975580608798497 0  -0.4058063261447636 -2 0  -0.3766996464780424 -2 0  -0.3475929668113213 -2 0  -0.3184862871446003 -2 0  -0.2893796074778791 -2 0  -0.2602729278111579 -2 0  -0.2311662481444368 -2 0  -0.2020595684777157 -2 0  -0.1729528888109945 -2 0  -0.1438462091442733 -2 0  -0.1147395294775522 -2 0  -0.08563284981083102 -2 0  -0.05652617014410988 -2 0  -0.02741949047738873 -2 0  0.001687189189332416 -2 0  0.03079386885605356 -2 0  0.05990054852277471 -2 0  0.08900722818949586 -2 0  0.118113907856217 -2 0  0.1472205875229382 -2 0  0.1763272671896593 -2 0  0.2054339468563804 -2 0  0.2345406265231016 -2 0  0.2636473061898227 -2 0  0.2927539858565439 -2 0  0.321860665523265 -2 0  0.3509673451899862 -2 0  0.3800740248567073 -2 0  0.4091807045234285 -2 0  0.4091807045234285 -1.990795218905229 0  0.4091807045234285 -1.981150968918185 0  0.4091807045234285 -1.970977872958437 0  0.4091807045234285 -1.960170286112113 0  0.4091807045234285 -1.94860147454338 0  0.4091807045234285 -1.936117138332756 0  0.4091807045234285 -1.922526546129436 0  0.4091807045234285 -1.907590160492309 0  0.4240458902893496 -1.907502388783245 0  0.4376500926966163 -1.907502388783245 0  0.4501456592004868 -1.907502388783245 0  0.4617237902869998 -1.907502388783245 0  0.4725391386846569 -1.907502388783245 0  0.4827187068249057 -1.907502388783245 0  0.49236834608484 -1.907502388783245 0  0.5015775933236882 -1.907502388783245 0  0.5104233360677455 -1.907502388783245 0  0.518972641754929 -1.907502388783245 0  0.5272849848558649 -1.907502388783245 0  0.5354140384066363 -1.907502388783245 0  0.5434091513904565 -1.907502388783245 0  0.5513166030101111 -1.907502388783245 0  0.5591807045234285 -1.907502388783245 0  0.5670448060367459 -1.907502388783245 0  0.5749522576564005 -1.907502388783245 0  0.5829473706402206 -1.907502388783245 0  0.591076424190992 -1.907502388783245 0  0.5993887672919279 -1.907502388783245 0  0.6079380729791115 -1.907502388783245 0  0.6167838157231688 -1.907502388783245 0  0.
[...]
<PointData  Vectors="f_15-0"> 
<DataArray  type="Float64"  Name="f_15-0"  NumberOfComponents="3" format="ascii">-4.7736008366906020e-04 2.7837146181660991e-03 0.0000000000000000e+00  -2.8195611039275072e-03 1.1154067933288100e-03 0.0000000000000000e+00  -4.3323150298308572e-03 1.2931707246752837e-03 0.0000000000000000e+00  -4.7223260049880341e-03 1.9868879618684925e-03 0.0000000000000000e+00  -4.0285766493150001e-03 2.6588391079736453e-03 0.0000000000000000e+00  -2.1044436732312851e-03 2.8214541233706216e-03 0.0000000000000000e+00  -2.4052390251695559e-04 1.9637160746893605e-03 0.0000000000000000e+00  -3.4147623239074488e-05 1.6256362010548396e-03 0.0000000000000000e+00  -5.1261334011295218e-06 1.5429408502853092e-03 0.0000000000000000e+00  -4.7195202439068353e-06 1.5205369626919371e-03 0.0000000000000000e+00  -4.7744758962184689e-06 1.5003560331823878e-03 0.0000000000000000e+00  -4.1720506602651395e-06 1.4815071304884646e-03 0.0000000000000000e+00  9.3643113357665093e-07 1.4748658927157708e-03 0.0000000000000000e+00  1.7947247221229053e-05 1.5127372602522298e-03 0.0000000000000000e+00  8.7847908091864441e-05 1.6944741733737946e-03 0.0000000000000000e+00  7.1424962420364724e-04 2.3444324191406662e-03 0.0000000000000000e+00  1.7734697963259557e-03 2.8593474327509704e-03 0.0000000000000000e+00  1.9603658994927341e-03 3.2214726020593819e-03 0.0000000000000000e+00  1.7964729349173715e-03 3.5685154736857334e-03 0.0000000000000000e+00  1.4563136695700011e-03 3.8659461927779367e-03 0.0000000000000000e+00  1.0128569766799452e-03 4.0871073737953978e-03 0.0000000000000000e+00  5.0464145467399150e-04 4.2275111274071402e-03 0.0000000000000000e+00  -3.8344046886696048e-05 4.2782359827504522e-03 0.0000000000000000e+00  -5.8950435661589136e-04 4.2372267155258107e-03 0.0000000000000000e+00  -1.1226029286238808e-03 4.0964024439990015e-03 0.0000000000000000e+00  -1.5938817617695477e-03 3.8522391205849790e-03 0.0000000000000000e+00  -1.9438995294168212e-03 3.4922444461616565e-03 0.0000000000000000e+00  -2.0280879901816832e-03 3.0368215583248077e-03 0.0000000000000000e+00  -1.3744436192595804e-03 2.4455329210987704e-03 0.0000000000000000e+00  -1.4642280408798782e-04 1.4816262009181447e-03 0.0000000000000000e+00  -3.2085195434614600e-05 1.1104597893248271e-03 0.0000000000000000e+00  -2.0340577569315276e-05 9.4637110245420679e-04 0.0000000000000000e+00  -1.7490566136099762e-05 8.2848827353062507e-04 0.0000000000000000e+00  -1.7179287671048033e-05 7.1961713848468160e-04 0.0000000000000000e+00  -1.5980636262822563e-05 6.1610777661442551e-04 0.0000000000000000e+00  -1.4153142964875354e-05 5.2275070820503302e-04 0.0000000000000000e+00  -1.0969213332807287e-05 4.5246703807608158e-04 0.0000000000000000e+00  2.3387681885948268e-05 4.6069836683109897e-04 0.0000000000000000e+00  5.3221177858493133e-04 9.2043043929664677e-04 0.0000000000000000e+00  2.3909494818344559e-03 1.2618205778864493e-03 0.0000000000000000e+00  3.2138662583702611e-03 7.8829413589692320e-04 0.0000000000000000e+00  2.5460603245087026e-03 1.3001473818966897e-04 0.0000000000000000e+00  9.1853093334451266e-04 -5.1575504462124996e-04 0.0000000000000000e+00  0.0000000000000000e+00 5.2030499879611833e-19 0.0000000000000000e+00  0.0000000000000000e+00 -2.3090322982697195e-19 0.0000000000000000e+00  0.0000000000000000e+00 3.8470345881695631e-20 0.0000000000000000e+00  0.0000000000000000e+00 3.8827187449403427e-19 0.0000000000000000e+00  0.0000000000000000e+00 7.2965525449789734e-21 0.0000000000000000e+00  0.0000000000000000e+00 4.6000696071538129e-20 0.0000000000000000e+00  0.0000000000000000e+00 -3.5827143666180049e-21 0.0000000000000000e+00  0.0000000000000000e+00 2.9489115759596927e-19 0.0000000000000000e+00  0.0000000000000000e+00 -2.6891766403567793e-20 0.0000000000000000e+00  0.0000000000000000e+00 -4.9713093337635222e-20 0.0000000000000000e+00  0.0000000000000000e+00 1.1393086478082729e-19 0.0000000000000000e+00  0.0000000000000000e+00 -1.5629120533119413e-19 0.0000000000000000e+00  0.0000000000000000e+00 -7.0357227426253748e-20 0.0000000000000000e+00  0.0000000000000000e+00 5.5962434917305374e-20 0.0000000000000000e+00  0.0000000000000000e+00 -8.2853729500981594e-19 0.0000000000000000e+00  0.0000000000000000e+00 0.0000000000000000e+00 0.0000000000000000e+00  -3.3561721242103419e-19 0.0000000000000000e+00 0.0000000000000000e+00  4.2757229365353224e-20 0.0000000000000000e+00 0.0000000000000000e+00  3.9974241743035996e-19 0.0000000000000000e+00 0.0000000000000000e+00  -2.4118207300340505e-19 0.0000000000000000e+00 0.0000000000000000e+00  1.3637951992745451e-19 0.0000000000000000e+00 0.0000000000000000e+00  1.0968140126229279e-19 0.0000000000000000e+00 0.0000000000000000e+00  7.9892518158328867e-19 0.0000000000000000e+00 0.0000000000000000e+00  -7.7104097122525580e-20 0.0000000000000000e+00 0.0000000000000000e+00  4.4556769443265285e-20 0.0000000000000000e+00 0.0000000000000000e+00  0.0000000000000000e+00 0.0000000000000000e+00 0.0000000000000000e+00  -5.8175639513300325e-21 0.0000000000000000e+00 0.0000000000000000e+00  -1.9327511336838464e-19 0.0000000000000000e+00 0.0000000000000000e+00  -4.5491279634687079e-19 0.0000000000000000e+00 0.0000000000000000e+00  -6.6268751782804921e-20 0.0000000000000000e+00 0.0000000000000000e+00  0.0000000000000000e+00 0.0000000000000000e+00 0.0000000000000000e+00  1.2400956485489237e-18 0.0000000000000000e+00 0.0000000000000000e+00  0.0000000000000000e+00 0.0000000000000000e+00 0.0000000000000000e+00  0.0000000000000000e+00 -4.8689926559264513e-19 0.0000000000000000e+00  0.0000000000000000e+00 -1.8375598212993764e-19 0.0000000000000000e+00  0.0000000000000000e+00 5.8455064044688174e-20 0.0000000000000000e+00  0.0000000000000000e+00 8.8129068034696239e-20 0.0000000000000000e+00  0.0000000000000000e+00 1.5309459954923684e-19 0.0000000000000000e+00  0.0000000000000000e+00 -9.0470519125475967e-21 0.0000000000000000e+00  0.0000000000000000e+00 2.2783302091911578e-20 0.0000000000000000e+00  0.0000000000000000e+00 -1.3243815822079884e-19 0.0000000000000000e+00  0.0000000000000000e+00 -6.3431270612118925e-20 0.0000000000000000e+00  0.0000000000000000e+00 -2.2842524823540753e-20 0.0000000000000000e+00  0.0000000000000000e+00 -3.4410043593657051e-19 0.0000000000000000e+00  0.0000000000000000e+00 3.4242286945985808e-20 0.0000000000000000e+00  0.0000000000000000e+00 9.0005172718684872e-21 0.0000000000000000e+00  0.0000000000000000e+00 -4.5155615351650177e-19 0.0000000000000000e+00  0.0000000000000000e+00 1.3171850841556365e-19 0.0000000000000000e+00  4.2123525635497138e-04 5.0215771382466272e-04 0.0000000000000000e+00  1.1615447796727337e-03 2.4304232435071443e-04 0.0000000000000000e+00  1.9671979204046353e-03 2.3185918133992046e-04 0.0000000000000000e+00  2.6317430145926090e-03 3.3078457690734458e-04 0.0000000000000000e+00  3.1763407438561019e-03 4.7309296757495423e-04 0.0000000000000000e+00  3.6031637544570411e-03 6.1868946256155531e-04 0.0000000000000000e+00  3.9057058265608985e-03 7.4515066542793734e-04 0.0000000000000000e+00  4.0736388228636532e-03 8.3412483343571237e-04 0.0000000000000000e+00  4.1251903229748439e-03 5.3576856657198003e-04 0.0000000000000000e+00  4.1553332871519183e-03 3.6801852236997232e-04 0.0000000000000000e+00  4.1719290677361088e-03 3.2849941190004923e-04 0.0000000000000000e+00  4.1800108679538751e-03 4.1807787800221313e-04 0.0000000000000000e+00  4.1829811744154817e-03 6.4037026279296406e-04 0.0000000000000000e+00  4.1813506058670262e-03 9.9845204618324705e-04 0.0000000000000000e+00  4.1717052204767284e-03 1.4883716106430531e-03 0.0000000000000000e+00  4.1447990423331407e-03 2.0914144768818302e-03 0.0000000000000000e+00  4.0875797310035173e-03 2.7697918474289124e-03 0.0000000000000000e+00  3.9829244425959630e-03 3.4631432430783566e-03 0.0000000000000000e+00  3.8190655172490422e-03 4.1036831140923054e-03 0.0000000000000000e+00  3.5888670048922241e-03 4.6205863811590786e-03 0.0000000000000000e+00  3.2884710319748120e-03 4.9506374065815149e-03 0.0000000000000000e+00  2.9134439374628152e-03 5.0438244060430713e-03 0.0000000000000000e+00  2.4456405905951750e-03 4.8490392625301654e-03 0.0000000000000000e+00  1.8476093395509315e-03 4.3166569626627606e-03 0.0000000000000000e+00  8.9343228688063805e-04 3.3753433817678520e-03 0.0000000000000000e+00  -3.2182666123492033e-04 2.3500998547568755e-03 0.0000000000000000e+00  0.0000000000000000e+00 1.1996866315784771e-18 0.0000000000000000e+00  0.0000000000000000e+00 9.8225408982647856e-19 0.0000000000000000e+00  0.0000000000000000e+00 -3.7165723921567019e-20 0.0000000000000000e+00  0.0000000000000000e+00 0.0000000000000000e+00 0.0000000000000000e+00  0.0000000000000000e+00 0.0000000000000000e+00 0.0000000000000000e+00  0.0000000000000000e+00 1.3369517809866643e-19 0.0000000000000000e+00  0.0000000000000000e+00 8.0203693761534404e-20 0.0000000000000000e+00  0.0000000000000000e+00 -1.2793015671072250e-21 0.0000000000000000e+00  0.0000000000000000e+00 3.5891034605354797e-20 0.0000000000000000e+00  0.0000000000000000e+00 -8.1290805648261650e-20 0.0000000000000000e+00  0.0000000000000000e+00 -8.7734458777492497e-20 0.0000000000000000e+00  0.0000000000000000e+00 3.4535620402661778e-19 0.0000000000000000e+00  0.0000000000000000e+00 9.4656956636795695e-20 0.0000000000000000e+00  0.0000000000000000e+00 -1.1060291150334219e-20 0.0000000000000000e+00  0.0000000000000000e+00 0.0000000000000000e+00 0.0000000000000000e+00  0.0000000000000000e+00 2.4736966445642737e-19 0.0000000000000000e+00  0.0000000000000000e+00 -6.0398666048572292e-20 0.0000000000000000e+00  0.0000000000000000e+00 4.4141135889461224e-19 0.0000000000000000e+00  0.0000000000000000e+00 -4.3498304992431034e-20 0.0000000000000000e+00  0.0000000000000000e+00 -1.9136775169812156e-19 0.0000000000000000e+00  0.0000000000000000e+00 -6.1633262542072566e-19 0.0000000000000000e+00  0.0000000000000000e+00 -7.1518756580403976e-21 0.0000000000000000e+00  0.0000000000000000e+00 0.0000000000000000e+00 0.0000000000000000e+00  0.0000000000000000e+00 0.0000000000000000e+00 0.0000000000000000e+00  0.0000000000000000e+00 3.6913218555314671e-20 0.0000000000000000e+00  0.0000000000000000e+00 1.4138181619342062e-18 0.0000000000000000e+00  0.0000000000000000e+00 -3.4141783000263930e-20 0.0000000000000000e+00  0.0000000000000000e+00 -6.0765230049673679e-20 0.0000000000000000e+00  0.0000000000000000e+00 -5.5792381174311951e-19 0.0000000000000000e+00  0.0000000000000000e+00 -1.6803978999721216e-21 0.0000000000000000e+00  0.0000000000000000e+00 6.3566806268404486e-19 0.0000000000000000e+00  0.0000000000000000e+00 1.8286622219928021e-20 0.0000000000000000e+00  0.0000000000000000e+00 2.1465720393287449e-20 0.0000000000000000e+00  0.0000000000000000e+00 5.6076764677739376e-19 0.0000000000000000e+00  0.0000000000000000e+00 2.2557253254643240e-20 0.0000000000000000e+00  0.0000000000000000e+00 1.0889828447476421e-18 0.0000000000000000e+00  -1.9936090269972385e-18 -3.3231081771701431e-20 0.0000000000000000e+00  0.0000000000000000e+00 -1.2030627819862467e-19 0.0000000000000000e+00  0.0000000000000000e+00 2.3462243140084281e-18 0.0000000000000000e+00  0.0000000000000000e+00 -9.9973885964872216e-19 0.0000000000000000e+00  -2.5133026394452288e-03 1.6547344126108714e-03 0.0000000000000000e+00  -3.1421840209950739e-03 3.0314859828152818e-03 0.0000000000000000e+00  -3.5304803817200634e-03 3.3585583857271080e-03 0.0000000000000000e+00  -3.5557255543541819e-03 3.1680484172235952e-03 0.0000000000000000e+00  -3.3410783264516313e-03 2.8508991057628894e-03 0.0000000000000000e+00  -2.9860106906915607e-03 2.5648497675933375e-03 0.0000000000000000e+00  -2.5399395045681127e-03 2.3856748753686295e-03 0.0000000000000000e+00  -2.0383735745453943e-03 2.3418934839962366e-03 0.0000000000000000e+00  -1.5002015042408954e-03 2.4555693584613282e-03 0.0000000000000000e+00  -9.5503635814783933e-04 2.7388980191384318e-03 0.0000000000000000e+00  -4.5551565854720898e-04 3.1850984707070661e-03 0.0000000000000000e+00  -7.3776411704536043e-05 3.7333773383448183e-03 0.0000000000000000e+00  1.2531938782379371e-04 4.2568504392590080e-03 0.0000000000000000e+00  1.2841393567730692e-04 4.5675570207252608e-03 0.0000000000000000e+00  2.2918253099729749e-06 4.4897409001129649e-03 0.0000000000000000e+00  -1.2329058630029352e-04 3.8995717274916317e-03 0.0000000000000000e+00  2.9344252257915839e-05 2.7586867971607773e-03 0.0000000000000000e+00  5.3482466425035962e-04 1.5687272816144100e-03 0.0000000000000000e+00  4.5214326423574178e-19 0.0000000000000000e+00 0.0000000000000000e+00  2.6046958163555046e-19 0.0000000000000000e+00 0.0000000000000000e+00  4.3163895505625943e-19 0.0000000000000000e+00 0.0000000000000000e+00  0.0000000000000000e+00 0.0000000000000000e+00 0.0000000000000000e+00  -4.9657425091120645e-19 0.0000000000000000e+00 0.0000000000000000e+00  -1.6552521816107277e-19 0.0000000000000000e+00 0.0000000000000000e+00  2.4269837332534945e-19 0.0000000000000000e+00 0.0000000000000000e+00  5.1095756969147425e-19 0.0000000000000000e+00 0.0000000000000000e+00  2.3804157380196203e-20 0.0000000000000000e+00 0.0000000000000000e+00  2.7611510818345549e-20 0.0000000000000000e+00 0.0000000000000000e+00  -1.3233899761429866e-18 0.0000000000000000e+00 0.0000000000000000e+00  -1.0798542639918126e-18 0.0000000000000000e+00 0.0000000000000000e+00  -1.0477241914788294e-19 0.0000000000000000e+00 0.0000000000000000e+00  2.9897703674509702e-19 0.0000000000000000e+00 0.0000000000000000e+00  1.3668483097794916e-18 0.0000000000000000e+00 0.0000000000000000e+00  0.0000000000000000e+00 0.0000000000000000e+00 0.0000000000000000e+00  0.0000000000000000e+00 0.0000000000000000e+00 0.0000000000000000e+00  0.0000000000000000e+00 0.0000000000000000e+00 0.0000000000000000e+00  0.0000000000000000e+00 -2.8893653610843646e-18 0.0000000000000000e+00  0.0000000000000000e+00 0.0000000000000000e+00 0.0000000000000000e+00  0.0000000000000000e+00 -6.9635025666900068e-20 0.0000000000000000e+00  0.0000000000000000e+00 9.2251243301022343e-20 0.0000000000000000e+00  0.0000000000000000e+00 0.0000000000000000e+00 0.0000000000000000e+00  0.0000000000000000e+00 7.4851561197597291e-20 0.0000000000000000e+00  0.0000000000000000e+00 -6.9442371334249809e-20 0.0000000000000000e+00  0.0000000000000000e+00 -2.1125834919660212e-18 0.0000000000000000e+00  0.0000000000000000e+00 4.8048788103474543e-20 0.0000000000000000e+00  0.0000000000000000e+00 -1.1568013048858330e-19 0.0000000000000000e+00  0.0000000000000000e+00 6.8213902694106181e-20 0.0000000000000000e+00  0.0000000000000000e+00 -4.0534381823450596e-19 0.0000000000000000e+00  0.0000000000000000e+00 1.0772161979969919e-19 0.0000000000000000e+00  0.0000000000000000e+00 8.2681888162038961e-19 0.0000000000000000e+00  0.0000000000000000e+00 3.0177974169341053e-19 0.0000000000000000e+00  1.0005845974941241e-19 0.0000000000000000e+00 0.0000000000000000e+00  1.7043459518163219e-19 0.0000000000000000e+00 0.0000000000000000e+00  -4.0654774861519547e-20 0.0000000000000000e+00 0.0000000000000000e+00  -1.2193356404222137e-19 0.0000000000000000e+00 0.0000000000000000e+00  -2.5029508671335333e-19 0.0000000000000000e+00 0.0000000000000000e+00  -9.3662305176656393e-20 0.0000000000000000e+00 0.0000000000000000e+00  1.2587844614109277e-19 0.0000000000000000e+00 0.0000000000000000e+00  -5.7439006964737155e-20 0.0000000000000000e+00 0.0000000000000000e+00  4.8266963624375845e-20 0.0000000000000000e+00 0.0000000000000000e+00  1.0700187040434706e-19 0.0000000000000000e+00 0.0000000000000000e+00  -3.0826357712371496e-19 0.0000000000000000e+00 0.0000000000000000e+00  1.2027776625335216e-19 0.0000000000000000e+00 0.0000000000000000e+00  -1.9843718576235762e-19 0.0000000000000000e+00 0.0000000000000000e+00  -3.7795318768471595e-19 0.0000000000000000e+00 0.0000000000000000e+00  -4.2202112315101690e-20 0.0000000000000000e+00 0.0000000000000000e+00  -3.2694637277336571e-19 0.0000000000000000e+00 0.0000000000000000e+00  1.8432979282272544e-03 1.1357934257561230e-03 0.0000000000000000e+00  1.8820258769637068e-03 2.7211170936479782e-03 0.0000000000000000e+00  2.0065958210137565e-03 3.9304635857626193e-03 0.0000000000000000e+00  1.9851749767268935e-03 4.6546901639185076e-03 0.0000000000000000e+00  1.8627369665091468e-03 5.0728418425720753e-03 0.0000000000000000e+00  1.6913194234356118e-03 5.2285639205249639e-03 0.0000000000000000e+00  1.5021485436757386e-03 5.1265017585305165e-03 0.0000000000000000e+00  1.3186265096774416e-03 4.7470093237575711e-03 0.0000000000000000e+00  1.1459216519993612e-03 4.0508620261470070e-03 0.0000000000000000e+00  9.8725791380846147e-04 2.9630368940255143e-03 0.0000000000000000e+00  6.9305347294825348e-04 1.2483919224501960e-03 0.0000000000000000e+00  4.3903508617216909e-05 4.8753906881712791e-05 0.0000000000000000e+00  -9.8163462013088162e-05 4.4700603059893761e-06 0.0000000000000000e+00  -1.3037374555778544e-04 8.8484741532336471e-07 0.0000000000000000e+00  -1.3935240087685022e-04 -6.7574813074847912e-08 0.0000000000000000e+00  -1.3440027809653792e-04 -1.1387080496232111e-06 0.0000000000000000e+00  -1.2385051329357765e-04 -1.5614196261855197e-06 0.0000000000000000e+00  -1.0986824655960583e-04 -1.6412272210544068e-06 0.0000000000000000e+00  -1.0059444494458667e-04 -3.1116423099712987e-06 0.0000000000000000e+00  -1.1076098524534999e-04 -5.2599885432328190e-06 0.0000000000000000e+00  -3.2151924760087343e-04 1.4930020706286864e-04 0.0000000000000000e+00  -1.1226931614263336e-03 2.3297372320089760e-03 0.0000000000000000e+00  -1.0631604920570198e-03 4.1743661239691124e-03 0.0000000000000000e+00  -8.3401091979530973e-04 5.2553653484378763e-03 0.0000000000000000e+00  -5.6963165258837821e-04 5.6455419306782823e-03 0.0000000000000000e+00  -3.3675257656032547e-04 5.3407436653814359e-03 0.0000000000000000e+00  -1.7192040721929121e-04 4.3033782947709300e-03 0.0000000000000000e+00  -9.3627982905476726e-05 2.5143559421012917e-03 0.0000000000000000e+00  -9.5807554849434111e-05 5.2130886957529713e-04 0.0000000000000000e+00  -1.0490446458702616e-19 0.0000000000000000e+00 0.0000000000000000e+00  0.0000000000000000e+00 0.0000000000000000e+00 0.0000000000000000e+00  0.0000000000000000e+00 0.0000000000000000e+00 0.0000000000000000e+00  1.2768997541331103e-19 0.0000000000000000e+00 0.0000000000000000e+00  0.0000000000000000e+00 0.0000000000000000e+00 0.0000000000000000e+00  -1.0126777453484355e-18 0.0000000000000000e+00 0.0000000000000000e+00  -9.7192033481790905e-19 0.0000000000000000e+00 0.0000000000000000e+00  0.0000000000000000e+00 0.0000000000000000e+00 0.0000000000000000e+00  0.0000000000000000e+00 3.3496631674158214e-19 0.0000000000000000e+00  0.0000000000000000e+00 5.5412886781564622e-20 0.0000000000000000e+00  0.0000000000000000e+00 -8.2952094429165221e-19 0.0000000000000000e+00  0.0000000000000000e+00 9.0430627952256992e-20 0.0000000000000000e+00  0.0000000000000000e+00 -2.8617819367515704e-20 0.0000000000000000e+00  0.0000000000000000e+00 -7.3938789132608829e-20 0.0000000000000000e+00  0.0000000000000000e+00 -1.3982071315310985e-21 0.0000000000000000e+00  0.0000000000000000e+00 -2.1223167280821449e-19 0.0000000000000000e+00  0.0000000000000000e+00 1.5834634758709484e-20 0.0000000000000000e+00  0.0000000000000000e+00 8.8179588477230049e-21 0.0000000000000000e+00  0.0000000000000000e+00 7.2440809228891792e-19 0.0000000000000000e+00  0.0000000000000000e+00 0.0000000000000000e+00 0.0000000000000000e+00  0.0000000000000000e+00 -5.4692481425956085e-20 0.0000000000000000e+00  0.0000000000000000e+00 9.2552192242167487e-20 0.0000000000000000e+00  0.0000000000000000e+00 -6.7167206039407291e-21 0.0000000000000000e+00  0.0000000000000000e+00 -3.6413614761265151e-20 0.0000000000000000e+00  0.0000000000000000e+00 -3.3889063848149084e-20 0.0000000000000000e+00  0.0000000000000000e+00 1.0496380048113746e-20 0.0000000000000000e+00  0.0000000000000000e+00 5.5341636831112951e-21 0.0000000000000000e+00  0.0000000000000000e+00 4.5959042056072701e-20 0.0000000000000000e+00  0.0000000000000000e+00 -3.6121984626768762e-20 0.0000000000000000e+00  0.0000000